# vtk DataFile Version 4.2
vtk output
ASCII
DATASET POLYDATA
POINTS 1686 float
56.2917 -228.335 636.139 54.1247 -228.702 642.006 55.7094 -230.341 642.339 
57.5763 -230.326 641.315 58.3648 -228.469 635.651 59.6702 -230.18 641.499 
60.0935 -228.252 636.094 61.6913 -228.483 641.32 54.6953 -226.655 635.803 
52.6897 -226.858 643.649 56.4141 -226.396 633.84 58.0367 -226.621 633.785 
59.8803 -226.635 634.111 61.704 -226.64 636.607 63.5211 -226.677 642.18 
54.3103 -224.815 635.899 52.541 -224.812 643.667 56.1671 -224.78 633.737 
57.9956 -224.777 633.42 59.8317 -224.798 633.708 61.6678 -224.82 635.662 
63.4898 -224.853 641.443 54.2643 -222.943 635.908 52.5252 -222.936 643.674 
56.1125 -222.942 633.737 57.9672 -222.941 633.391 59.8192 -222.944 633.665 
61.6563 -222.978 635.705 63.2693 -223.228 641.106 54.2559 -221.082 635.944 
52.524 -221.067 643.768 56.1008 -221.085 633.77 57.9411 -221.102 633.413 
59.7683 -221.106 633.675 61.5887 -221.125 635.796 63.4213 -221.346 643.511 
54.218 -219.234 636.297 52.5566 -219.092 644.838 56.0466 -219.233 634.107 
57.8995 -219.263 633.779 59.5175 -219.496 633.81 61.1747 -219.317 635.865 
62.7136 -219.556 642.404 54.0733 -217.643 637.977 53.1511 -217.289 645.058 
55.706 -217.47 636.294 57.558 -217.46 636.014 59.5969 -217.673 636.596 
61.5219 -217.901 643.685 54.6487 -216.253 643.895 56.4487 -216.081 643.739 
58.306 -216.117 643.85 59.9979 -216.425 644.94 -70.0893 -233.836 646.489 
-72.2502 -233.931 653.045 -70.2702 -235.354 655.78 -68.4186 -235.385 653.875 
-68.0093 -233.999 645.952 -66.5603 -235.393 653.438 -66.149 -234.007 645.804 
-64.9293 -235.306 652.316 -64.3033 -233.986 645.846 -63.0267 -235.12 654.251 
-62.43 -233.959 645.935 -60.9986 -234.983 653.275 -60.5845 -233.921 645.829 
-59.371 -234.816 652.231 -58.9091 -233.711 646.298 -57.5153 -233.601 653.893 
56.375 -233.754 646.473 54.7282 -233.523 653.437 56.3866 -234.827 654.709 
58.0263 -235.158 653.807 58.4287 -233.974 645.938 59.8961 -235.368 653.68 
60.307 -234.01 645.9 61.7578 -235.399 653.668 62.1678 -234.013 645.908 
63.6145 -235.385 653.66 64.0134 -233.983 645.963 65.44 -235.184 653.623 
65.6921 -233.768 646.539 67.2279 -233.926 653.86 -73.566 -232.154 646.833 
-75.0401 -231.918 652.437 -74.0866 -233.294 654.58 -71.716 -232.188 644.913 
-70.0174 -231.966 643.761 -68.3927 -232.193 643.784 -66.5351 -232.225 643.734 
-64.6766 -232.226 643.724 -62.8173 -232.223 643.732 -60.958 -232.219 643.74 
-59.1042 -232.207 643.905 -57.1428 -232.278 645.708 -55.7969 -233.051 652.366 
-55.3446 -231.864 647.494 -54.638 -231.878 654.332 54.5101 -231.964 645.448 
52.9753 -231.736 653.188 56.32 -231.936 643.503 57.9949 -232.168 643.456 
59.887 -232.207 643.559 61.7623 -232.226 643.708 63.6218 -232.225 643.771 
65.4644 -232.206 644.197 67.272 -232.201 647.246 68.9467 -232.181 655.896 
-73.9075 -230.349 645.881 -75.3115 -230.346 653.416 -72.1087 -230.369 643.902 
-70.2672 -230.354 643.482 -68.4406 -230.354 643.368 -66.6018 -230.374 643.359 
-64.7438 -230.377 643.355 -62.8846 -230.377 643.355 -61.0252 -230.377 643.357 
-59.1657 -230.377 643.38 -57.2985 -230.382 643.647 -55.4682 -230.344 645.116 
-54.0853 -230.17 652.804 52.9081 -230.335 645.618 51.6848 -230.092 652.16 
54.2677 -230.364 643.521 61.6801 -230.36 643.03 63.5519 -230.376 643.354 
65.4103 -230.376 643.732 67.2546 -230.375 646.053 68.9825 -230.378 653.992 
-73.9621 -228.516 645.894 -75.3509 -228.512 653.656 -72.1729 -228.517 643.743 
-70.3223 -228.517 643.374 -68.4665 -228.516 643.317 -66.6106 -228.518 643.307 
-64.7527 -228.519 643.306 -62.8935 -228.519 643.306 -61.0341 -228.519 643.306 
-59.1749 -228.519 643.31 -57.3158 -228.52 643.364 -55.4701 -228.517 643.868 
-53.7737 -228.489 646.934 -52.8736 -228.314 654.467 52.3793 -228.766 645.885 
51.5275 -228.489 653.062 63.54 -228.518 643.067 65.3973 -228.52 643.651 
67.2451 -228.521 645.913 68.9811 -228.527 653.716 -73.9664 -226.66 645.995 
-75.339 -226.656 653.897 -72.1806 -226.66 643.747 -70.3301 -226.66 643.358 
-68.4718 -226.66 643.308 -66.6129 -226.66 643.302 -64.7538 -226.66 643.301 
-62.8947 -226.66 643.301 -61.0355 -226.66 643.302 -59.177 -226.661 643.304 
-57.3203 -226.662 643.336 -55.4738 -226.662 643.681 -53.7415 -226.664 645.969 
-52.7272 -226.704 653.537 51.5154 -226.613 653.001 65.3479 -226.681 643.547 
67.185 -226.669 645.888 68.9378 -226.69 653.601 -73.9404 -224.804 646.969 
-75.1503 -224.827 655.692 -72.1807 -224.801 643.915 -70.3317 -224.8 643.38 
-68.4729 -224.801 643.31 -66.6136 -224.801 643.303 -64.7552 -224.802 643.302 
-62.898 -224.803 643.306 -61.0406 -224.802 643.317 -59.1829 -224.804 643.331 
-57.3417 -224.821 643.356 -55.5202 -224.825 643.669 -53.7813 -224.829 645.793 
-52.7403 -224.872 653.25 51.5003 -224.735 652.989 65.0957 -225.071 643.376 
66.7707 -224.861 645.834 68.5489 -224.903 653.596 -73.7572 -222.981 652.059 
-72.1877 -222.954 645.027 -70.3452 -222.934 643.638 -68.4791 -222.942 643.364 
-66.6194 -222.942 643.336 -64.761 -222.944 643.336 -62.9193 -222.962 643.34 
-61.0899 -222.964 643.418 -59.2442 -222.952 643.573 -57.3895 -222.985 643.708 
-55.7719 -223.217 643.8 -54.166 -223.038 645.841 -52.9239 -223.26 652.202 
51.4984 -222.873 652.996 65.133 -223.21 645.131 67.0821 -223.251 653.692 
-72.3355 -221.38 647.615 -73.3684 -221.238 655.629 -70.4864 -220.991 645.776 
-68.5342 -221.1 643.872 -66.6799 -221.096 643.68 -64.8218 -221.097 643.673 
-62.9659 -221.127 643.711 -61.3447 -221.356 643.687 -59.6721 -221.158 644.742 
-57.8029 -221.198 645.78 -55.7704 -221.43 646.539 -54.1968 -221.665 653.36 
51.5117 -221.021 653.164 65.1149 -221.538 654.38 -71.769 -219.945 653.877 
-69.946 -219.399 653.533 -68.7153 -219.56 646.29 -67.062 -219.387 645.855 
-65.2355 -219.363 645.898 -63.3649 -219.377 645.953 -61.3229 -219.57 646.44 
-59.4455 -219.725 652.642 -57.4255 -220.168 653.475 -55.7908 -220.404 654.53 
51.6577 -219.429 654.283 63.0588 -219.52 652.283 -68.2739 -218.468 652.426 
-66.682 -218.347 653.528 -64.8322 -218.338 653.694 -62.9606 -218.376 653.818 
-61.3003 -218.542 654.628 52.7519 -217.809 653.083 61.2002 -217.588 653.069 
54.1097 -216.375 651.86 55.718 -216.113 652.823 57.5514 -216.095 652.986 
59.3876 -216.313 653.093 -73.5594 -233.709 662.828 -71.7293 -234.99 663.184 
-70.038 -235.28 664.437 -68.4431 -235.379 663.262 -66.6069 -235.387 662.774 
-64.7775 -235.355 660.906 -62.9103 -233.982 663.864 -61.0489 -233.947 661.142 
-59.2075 -233.895 659.729 55.9241 -233.7 660.776 57.8119 -234.043 663.083 
59.8204 -235.179 662.999 61.6918 -235.37 662.982 63.5508 -235.387 662.968 
65.3869 -235.349 662.806 66.9752 -235.055 661.717 68.5847 -233.607 663.045 
-75.1158 -232.108 660.897 -61.0685 -232.228 665.136 -59.1949 -232.205 663.031 
-57.3524 -232.209 661.553 -55.8364 -232.324 659.14 54.3483 -232.134 660.923 
56.1296 -232.194 664.83 69.8397 -232.003 664.387 -75.3093 -230.32 662.751 
-59.3695 -230.217 665.13 -57.3305 -230.374 663.148 -55.427 -230.54 660.908 
52.7631 -230.16 660.291 54.548 -230.607 664.191 69.9935 -230.419 663.285 
-75.3383 -228.453 662.989 -59.1944 -228.123 665.494 -57.3345 -228.478 663.586 
-55.4864 -228.578 662.769 -53.9887 -228.777 660.315 52.5828 -228.099 660.943 
54.3344 -228.862 664.911 70.0081 -228.587 663.011 -75.3041 -226.613 663.249 
-59.19 -226.228 665.424 -57.3227 -226.596 663.637 -55.4789 -226.718 662.968 
-53.7922 -227.105 660.803 52.5646 -226.193 660.856 54.4616 -226.758 664.804 
69.9912 -226.751 662.811 -75.0368 -225.001 664.321 -59.1621 -224.341 664.549 
-57.3363 -224.751 663.537 -55.5065 -224.864 662.926 -53.7796 -225.269 660.712 
52.55 -224.318 660.723 54.2839 -224.735 663.19 56.1418 -224.787 665.416 
69.8076 -225.166 661.689 -74.0053 -223.131 662.412 -60.8809 -222.763 665.709 
-58.9331 -222.639 663.297 -57.3219 -222.943 663.073 -55.7354 -223.248 662.835 
-53.9778 -223.255 660.093 52.5505 -222.459 660.713 54.268 -222.862 662.903 
56.1097 -222.933 663.589 57.9639 -222.944 665.373 66.7502 -222.928 663.156 
68.5163 -223.823 662.828 -73.2634 -221.391 664.103 -61.2476 -220.898 664.191 
-59.348 -220.98 661.353 -57.3461 -221.242 660.918 -55.571 -221.667 660.775 
52.578 -220.635 660.758 54.2692 -221.006 662.839 56.1058 -221.076 663.247 
57.944 -221.105 663.527 59.7689 -221.137 664.368 61.3941 -221.357 665.402 
63.2692 -221.209 663.138 65.0608 -221.893 664.298 -72.2717 -220.078 661.966 
-70.6782 -219.752 662.699 -68.6359 -219.404 661.98 -66.6352 -219.387 662.894 
-64.7524 -219.401 662.985 -62.7443 -219.575 662.982 -60.8615 -219.61 660.65 
52.7753 -219.004 660.215 54.2825 -219.177 662.423 56.1009 -219.228 662.87 
57.937 -219.282 662.948 59.5483 -219.532 663.048 61.3913 -219.497 661.424 
54.2549 -217.488 659.449 56.0424 -217.459 660.561 57.8895 -217.505 660.694 
59.7091 -217.891 660.737 -72.0808 -233.549 670.678 -70.2667 -233.93 670.825 
-68.4451 -233.993 670.829 -66.6098 -234.005 670.62 -64.7568 -234.002 669.502 
59.8432 -233.594 670.758 61.6857 -233.955 670.701 63.5436 -234.002 670.69 
65.3965 -234.004 670.584 67.1756 -233.963 669.45 -73.7345 -231.954 669.952 
-71.9099 -231.915 672.716 -70.2995 -232.163 672.864 -68.4653 -232.218 672.882 
-66.6112 -232.226 672.858 -64.7556 -232.229 672.607 -62.9158 -232.244 670.808 
58.1742 -231.986 671.174 60.0919 -231.922 672.846 61.7061 -232.168 672.869 
63.5444 -232.22 672.864 65.4001 -232.231 672.824 67.2228 -232.271 672.412 
68.7123 -232.442 670.188 -73.9389 -229.911 670.625 -72.1407 -230.296 672.797 
-70.3061 -230.346 673.207 -68.4689 -230.372 673.243 -66.6128 -230.377 673.242 
-64.755 -230.383 673.191 -62.9152 -230.426 672.728 -61.3018 -230.642 670.606 
56.3351 -230.186 670.499 58.2525 -230.089 672.813 59.8837 -230.314 673.081 
61.7089 -230.348 673.233 63.5457 -230.372 673.241 65.4012 -230.383 673.21 
67.2425 -230.443 672.875 68.9254 -230.819 670.752 -73.9537 -228.039 670.712 
-72.1759 -228.44 672.859 -70.3268 -228.508 673.238 -68.4708 -228.517 673.289 
[...]
POINT_DATA 1686
SCALARS scalars float
LOOKUP_TABLE default
1 1 1 1 1 1 1 1 1 
1 1 1 1 1 1 1 1 1 
1 1 1 1 1 1 1 1 1 
1 1 1 1 1 1 1 1 1 
1 1 1 1 1 1 1 1 1 
1 1 1 1 1 1 1 1 1 
1 1 1 1 1 1 1 1 1 
1 1 1 1 1 1 1 1 1 
1 1 1 1 1 1 1 1 1 
1 1 1 1 1 1 1 1 1 
1 1 1 1 1 1 1 1 1 
1 1 1 1 1 1 1 1 1 
1 1 1 1 1 1 1 1 1 
1 1 1 1 1 1 1 1 1 
1 1 1 1 1 1 1 1 1 
1 1 1 1 1 1 1 1 1 
1 1 1 1 1 1 1 1 1 
1 1 1 1 1 1 1 1 1 
1 1 1 1 1 1 1 1 1 
1 1 1 1 1 1 1 1 1 
1 1 1 1 1 1 1 1 1 
1 1 1 1 1 1 1 1 1 
1 1 1 1 1 1 1 1 1 
1 1 1 1 1 1 1 1 1 
1 1 1 1 1 1 1 1 1 
1 1 1 1 1 1 1 1 1 
1 1 1 1 1 1 1 1 1 
1 1 1 1 1 1 1 1 1 
1 1 1 1 1 1 1 1 1 
1 1 1 1 1 1 1 1 1 
1 1 1 1 1 1 1 1 1 
1 1 1 1 1 1 1 1 1 
1 1 1 1 1 1 1 1 1 
1 1 1 1 1 1 1 1 1 
1 1 1 1 1 1 1 1 1 
1 1 1 1 1 1 1 1 1 
1 1 1 1 1 1 1 1 1 
1 1 1 1 1 1 1 1 1 
1 1 1 1 1 1 1 1 1 
1 1 1 1 1 1 1 1 1 
1 1 1 1 1 1 1 1 1 
1 1 1 1 1 1 1 1 1 
1 1 1 1 1 1 1 1 1 
1 1 1 1 1 1 1 1 1 
1 1 1 1 1 1 1 1 1 
1 1 1 1 1 1 1 1 1 
1 1 1 1 1 1 1 1 1 
1 1 1 1 1 1 1 1 1 
1 1 1 1 1 1 1 1 1 
1 1 1 1 1 1 1 1 1 
1 1 1 1 1 1 1 1 1 
1 1 1 1 1 1 1 1 1 
1 1 1 1 1 1 1 1 1 
1 1 1 1 1 1 1 1 1 
1 1 1 1 1 1 1 1 1 
1 1 1 1 1 1 1 1 1 
1 1 1 1 1 1 1 1 1 
1 1 1 1 1 1 1 1 1 
1 1 1 1 1 1 1 1 1 
1 1 1 1 1 1 1 1 1 
1 1 1 1 1 1 1 1 1 
1 1 1 1 1 1 1 1 1 
1 1 1 1 1 1 1 1 1 
1 1 1 1 1 1 1 1 1 
1 1 1 1 1 1 1 1 1 
1 1 1 1 1 1 1 1 1 
1 1 1 1 1 1 1 1 1 
1 1 1 1 1 1 1 1 1 
1 1 1 1 1 1 1 1 1 
1 1 1 1 1 1 1 1 1 
1 1 1 1 1 1 1 1 1 
1 1 1 1 1 1 1 1 1 
1 1 1 1 1 1 1 1 1 
1 1 1 1 1 1 1 1 1 
1 1 1 1 1 1 1 1 1 
1 1 1 1 1 1 1 1 1 
1 1 1 1 1 1 1 1 1 
1 1 1 1 1 1 1 1 1 
1 1 1 1 1 1 1 1 1 
1 1 1 1 1 1 1 1 1 
1 1 1 1 1 1 1 1 1 
1 1 1 1 1 1 1 1 1 
1 1 1 1 1 1 1 1 1 
1 1 1 1 1 1 1 1 1 
1 1 1 1 1 1 1 1 1 
1 1 1 1 1 1 1 1 1 
1 1 1 1 1 1 1 1 1 
1 1 1 1 1 1 1 1 1 
1 1 1 1 1 1 1 1 1 
1 1 1 1 1 1 1 1 1 
1 1 1 1 1 1 1 1 1 
1 1 1 1 1 1 1 1 1 
1 1 1 1 1 1 1 1 1 
1 1 1 1 1 1 1 1 1 
1 1 1 1 1 1 1 1 1 
1 1 1 1 1 1 1 1 1 
1 1 1 1 1 1 1 1 1 
1 1 1 1 1 1 1 1 1 
1 1 1 1 1 1 1 1 1 
1 1 1 1 1 1 1 1 1 
1 1 1 1 1 1 1 1 1 
1 1 1 1 1 1 1 1 1 
1 1 1 1 1 1 1 1 1 
1 1 1 1 1 1 1 1 1 
1 1 1 1 1 1 1 1 1 
1 1 1 1 1 1 1 1 1 
1 1 1 1 1 1 1 1 1 
1 1 1 1 1 1 1 1 1 
1 1 1 1 1 1 1 1 1 
1 1 1 1 1 1 1 1 1 
1 1 1 1 1 1 1 1 1 
1 1 1 1 1 1 1 1 1 
1 1 1 1 1 1 1 1 1 
1 1 1 1 1 1 1 1 1 
1 1 1 1 1 1 1 1 1 
1 1 1 1 1 1 1 1 1 
1 1 1 1 1 1 1 1 1 
1 1 1 1 1 1 1 1 1 
1 1 1 1 1 1 1 1 1 
1 1 1 1 1 1 1 1 1 
1 1 1 1 1 1 1 1 1 
1 1 1 1 1 1 1 1 1 
1 1 1 1 1 1 1 1 1 
1 1 1 1 1 1 1 1 1 
1 1 1 1 1 1 1 1 1 
1 1 1 1 1 1 1 1 1 
1 1 1 1 1 1 1 1 1 
1 1 1 1 1 1 1 1 1 
1 1 1 1 1 1 1 1 1 
1 1 1 1 1 1 1 1 1 
1 1 1 1 1 1 1 1 1 
1 1 1 1 1 1 1 1 1 
1 1 1 1 1 1 1 1 1 
1 1 1 1 1 1 1 1 1 
1 1 1 1 1 1 1 1 1 
1 1 1 1 1 1 1 1 1 
1 1 1 1 1 1 1 1 1 
1 1 1 1 1 1 1 1 1 
1 1 1 1 1 1 1 1 1 
1 1 1 1 1 1 1 1 1 
1 1 1 1 1 1 1 1 1 
1 1 1 1 1 1 1 1 1 
1 1 1 1 1 1 1 1 1 
1 1 1 1 1 1 1 1 1 
1 1 1 1 1 1 1 1 1 
1 1 1 1 1 1 1 1 1 
1 1 1 1 1 1 1 1 1 
1 1 1 1 1 1 1 1 1 
1 1 1 1 1 1 1 1 1 
1 1 1 1 1 1 1 1 1 
1 1 1 1 1 1 1 1 1 
1 1 1 1 1 1 1 1 1 
1 1 1 1 1 1 1 1 1 
1 1 1 1 1 1 1 1 1 
1 1 1 1 1 1 1 1 1 
1 1 1 1 1 1 1 1 1 
1 1 1 1 1 1 1 1 1 
1 1 1 1 1 1 1 1 1 
1 1 1 1 1 1 1 1 1 
1 1 1 1 1 1 1 1 1 
1 1 1 1 1 1 1 1 1 
1 1 1 1 1 1 1 1 1 
1 1 1 1 1 1 1 1 1 
1 1 1 1 1 1 1 1 1 
1 1 1 1 1 1 1 1 1 
1 1 1 1 1 1 1 1 1 
1 1 1 1 1 1 1 1 1 
1 1 1 1 1 1 1 1 1 
1 1 1 1 1 1 1 1 1 
1 1 1 1 1 1 1 1 1 
1 1 1 1 1 1 1 1 1 
1 1 1 1 1 1 1 1 1 
1 1 1 1 1 1 1 1 1 
1 1 1 1 1 1 1 1 1 
1 1 1 1 1 1 1 1 1 
1 1 1 1 1 1 1 1 1 
1 1 1 1 1 1 1 1 1 
1 1 1 1 1 1 1 1 1 
1 1 1 1 1 1 1 1 1 
1 1 1 1 1 1 1 1 1 
1 1 1 1 1 1 1 1 1 
1 1 1 1 1 1 1 1 1 
1 1 1 1 1 1 1 1 1 
1 1 1 1 1 1 1 1 1 
1 1 1 1 1 1 1 1 1 
1 1 1 1 1 1 1 1 1 
1 1 1 1 1 1 1 1 1 
1 1 1 
NORMALS normals float
0 0 1 0.701073 0.701073 0.130356 0 0.983149 0.182804 
0 0.983149 0.182804 0 0 1 0 0.983149 0.182804 
0 0 1 -0.701073 0.701073 0.130356 0 0 1 
0.983149 0 0.182804 0 0 1 0 0 1 
0 0 1 0 0 1 -0.983149 0 0.182804 
0 0 1 0.983149 0 0.182804 0 0 1 
0 0 1 0 0 1 0 0 1 
-0.983149 0 0.182804 0 0 1 0.983149 0 0.182804 
0 0 1 0 0 1 0 0 1 
0 0 1 -0.983149 0 0.182804 0 0 1 
0.983149 0 0.182804 0 0 1 0 0 1 
0 0 1 0 0 1 -0.983149 0 0.182804 
0 0 1 0.983149 0 0.182804 0 0 1 
0 0 1 0 0 1 0 0 1 
-1 0 0 0 0 1 1 0 0 
0 0 1 0 0 1 0 0 1 
-0.707107 -0.707107 0 0 -1 0 0 -1 0 
0 -1 0 0 -1 0 0 0 1 
0.701073 0.701073 0.130356 0 1 0 0 1 0 
0 0 1 0 1 0 0 0 1 
0 1 0 0 0 1 0 1 0 
0 0 1 0 1 0 0 0 1 
0 1 0 0 0 1 -0.707107 0.707107 0 
0 0 1 0.707107 0.707107 0 0 1 0 
0 1 0 0 0 1 0 1 0 
0 0 1 0 1 0 0 0 1 
0 1 0 0 0 1 0 1 0 
0 0 1 -0.701073 0.701073 0.130356 0 0 1 
1 0 0 0 1 0 0 0 1 
0 0 1 0 0 1 0 0 1 
0 0 1 0 0 1 0 0 1 
0 0 1 0 0 1 0 1 0 
0 0 1 -1 0 0 0 0 1 
0.707107 0.707107 0 0 0 1 0 0 1 
0 0 1 0 0 1 0 0 1 
0 0 1 0 0 1 -0.983149 0 0.182804 
0 0 1 1 0 0 0 0 1 
0 0 1 0 0 1 0 0 1 
0 0 1 0 0 1 0 0 1 
0 0 1 0 0 1 0 0 1 
-0.707107 0.707107 0 0 0 1 1 0 0 
0 0 1 0 0 1 0 0 1 
0 0 1 0 0 1 -0.983149 0 0.182804 
0 0 1 1 0 0 0 0 1 
0 0 1 0 0 1 0 0 1 
0 0 1 0 0 1 0 0 1 
0 0 1 0 0 1 0 0 1 
0 0 1 -1 0 0 0 0 1 
1 0 0 0 0 1 0 0 1 
0 0 1 -0.983149 0 0.182804 0 0 1 
1 0 0 0 0 1 0 0 1 
0 0 1 0 0 1 0 0 1 
0 0 1 0 0 1 0 0 1 
0 0 1 0 0 1 0 0 1 
-1 0 0 1 0 0 0 0 1 
0 0 1 -0.983149 0 0.182804 0 0 1 
1 0 0 0 0 1 0 0 1 
0 0 1 0 0 1 0 0 1 
0 0 1 0 0 1 0 0 1 
0 0 1 0 0 1 0 0 1 
-1 0 0 1 0 0 0 0 1 
0 0 1 -0.983149 0 0.182804 0.707107 -0.707107 0 
0 0 1 0 0 1 0 0 1 
0 0 1 0 0 1 0 0 1 
0 0 1 0 0 1 0 0 1 
0 0 1 0 0 1 -1 0 0 
1 0 0 0 0 1 -0.707107 -0.707107 0 
0 0 1 1 0 0 0 0 1 
0 0 1 0 0 1 0 0 1 
0 0 1 0 0 1 0 0 1 
0 0 1 0 0 1 -0.707107 -0.707107 0 
1 0 0 -0.707107 -0.707107 0 0 -1 0 
0.707107 -0.707107 0 0 0 1 0 0 1 
0 0 1 0 0 1 0 0 1 
-0.707107 -0.707107 0 0 -1 0 0 -1 0 
1 0 0 -0.707107 -0.707107 0 0 -1 0 
0 -1 0 0 -1 0 0 -1 0 
0 -1 0 0.707107 -0.707107 0 -0.707107 -0.707107 0 
0 -1 0 0 -1 0 0 -1 0 
0 -1 0 0.707107 0.707107 0 0 1 0 
0 1 0 0 1 0 0 1 0 
0 1 0 -0.701073 0.701073 -0.130356 0 0 -1 
0 0 -1 0 0 -1 0.701073 0.701073 -0.130356 
0 1 0 0 1 0 0 1 0 
0 1 0 0 1 0 -0.707107 0.707107 0 
1 0 0 -0.701073 0.701073 -0.130356 0 0 -1 
0 0 -1 0 0 -1 0 0 -1 
0.701073 0.701073 -0.130356 -1 0 0 1 0 0 
-0.983149 0 -0.182804 0 0 -1 0 0 -1 
0 0 -1 0.983149 0 -0.182804 -1 0 0 
1 0 0 -0.983149 0 -0.182804 0 0 -1 
0 0 -1 0 0 -1 0 0 -1 
0.983149 0 -0.182804 -1 0 0 1 0 0 
-0.983149 0 -0.182804 0 0 -1 0 0 -1 
0 0 -1 0 0 -1 0.983149 0 -0.182804 
-1 0 0 1 0 0 -0.983149 0 -0.182804 
0 0 -1 0 0 -1 0 0 -1 
0 0 -1 0 0 -1 0.701073 -0.701073 -0.130356 
-1 0 0 0.707107 -0.707107 0 -0.701073 -0.701073 -0.130356 
0 0 -1 0 0 -1 0 0 -1 
0 0 -1 0 0 -1 0 0 -1 
0 0 -1 0.701073 -0.701073 -0.130356 -0.707107 -0.707107 0 
0 -1 0 1 0 0 -0.983149 0 -0.182804 
0 0 -1 0 0 -1 0 0 -1 
0 0 -1 0 0 -1 0 0 -1 
0 0 -1 0 -0.983149 -0.182804 0 -0.983149 -0.182804 
0 -0.983149 -0.182804 0 -1 0 0 -1 0 
0 -1 0 0 -0.983149 -0.182804 0 -0.983149 -0.182804 
0 -0.983149 -0.182804 0 -0.983149 -0.182804 0 0 -1 
0 0 -1 0 0 -1 0 0 -1 
0 0 -1 0 0 -1 0 0 -1 
0 0 -1 0 0 -1 0 0 -1 
0 0 -1 0 0 -1 0 0 -1 
0 0 -1 0 0 -1 0 0 -1 
0 0 -1 0 0 -1 0 0 -1 
0 0 -1 0 0 -1 0 0 -1 
0 0 -1 0 0 -1 0 0 -1 
0 0 -1 0 0 -1 0 0 -1 
0 0 -1 0 0 -1 0 0 -1 
0 0 -1 0 0 -1 0 0 -1 
0 0 -1 0 0 -1 0 0 -1 
0 0 -1 0 0 -1 0 0 -1 
0 0 -1 0 0 -1 0 0 -1 
0 0 -1 0 0 -1 0 0 -1 
0 0 -1 0 0 -1 0 0 -1 
0 0 -1 0 0 -1 0 0 -1 
0 0 -1 0 0 -1 0 0 -1 
0 0 -1 0 0 -1 0 0 -1 
0 0 -1 0 0 -1 0 0 -1 
0 0 -1 0 0 -1 0 0 -1 
0 0 -1 0 0 -1 0 0 -1 
0 0 -1 0 0 -1 0 0 -1 
0 0 -1 0 0 -1 0 0 -1 
0 0 -1 0 0 -1 0 0 -1 
0 0 -1 0 0 -1 0 0 -1 
0 0 -1 0 0 -1 0 0 -1 
0 0 -1 0 0 -1 0 0 -1 
0 0 -1 0 0 -1 0 0 -1 
0 0 -1 0 0 -1 0 0 -1 
0 0 -1 0 0 -1 0 0 -1 
0 0 -1 0 0 -1 0 0 -1 
0 0 -1 0 0 -1 0 0 -1 
0 0 -1 0 0 -1 0 0 -1 
0 0 -1 0 0 -1 0 0 -1 
0 0 -1 0 0 -1 0 0 -1 
0 0 -1 0 0 -1 0 0 -1 
0 0 -1 0 0 -1 0 0 1 
0.707107 0.707107 0 0 1 0 0 1 0 
0 0 1 0 1 0 0 0 1 
-1 0 0 0 0 1 1 0 0 
0 0 1 0 0 1 0 0 1 
-1 0 0 0 0 1 1 0 0 
0 0 1 0 0 1 0 0 1 
-1 0 0 0.707107 -0.707107 0 0 0 1 
0 0 1 0 0 1 -1 0 0 
0 -1 0 0 -1 0 0 -1 0 
0 0 1 0.701073 0.701073 0.130356 0 0.983149 0.182804 
0 0.983149 0.182804 0 0 1 0 0.983149 0.182804 
0 0 1 0 0.983149 0.182804 0 0 1 
-0.701073 0.701073 0.130356 0 0 1 0.983149 0 0.182804 
0 0 1 0 0 1 0 0 1 
0 0 1 0 0 1 -0.701073 0.701073 0.130356 
0 0 1 0.983149 0 0.182804 0 0 1 
0 0 1 0 0 1 0 0 1 
0 0 1 0 0 1 -0.701073 0.701073 0.130356 
0 0 1 0.983149 0 0.182804 0 0 1 
0 0 1 0 0 1 0 0 1 
0 0 1 0 0 1 0 0 1 
-0.983149 0 0.182804 0 0 1 0.983149 0 0.182804 
0 0 1 0 0 1 0 0 1 
0 0 1 0 0 1 0 0 1 
0 0 1 -0.983149 0 0.182804 0 0 1 
0.983149 0 0.182804 0 0 1 0 0 1 
0 0 1 0 0 1 0 0 1 
0 0 1 0 0 1 -0.983149 0 0.182804 
0.701073 -0.701073 0.130356 0 0 1 0 0 1 
0 0 1 0 0 1 0 0 1 
0 0 1 -0.701073 -0.701073 0.130356 0 -0.983149 0.182804 
0.701073 -0.701073 0.130356 0 0 1 0 0 1 
0 0 1 -0.701073 -0.701073 0.130356 0 -0.983149 0.182804 
0 -0.983149 0.182804 0 -0.983149 0.182804 0 0 -1 
0 0 -1 0 0 -1 0 0 -1 
0 0 -1 0 0 -1 0 0 -1 
0 0 -1 0 0 -1 0 0 -1 
0 0 -1 0 0 -1 0 0 -1 
0 0 -1 0 0 1 0.701073 0.701073 0.130356 
0 0.983149 0.182804 0 0.983149 0.182804 0 0 1 
0 0.983149 0.182804 0 0 1 0 1 0 
0 0 1 0 1 0 0 0 1 
-0.707107 0.707107 0 0 0 1 0.701073 0.701073 0.130356 
0 0.983149 0.182804 0 0 1 0 0 1 
0 0 1 0 0 1 0 0 1 
0 0 1 0 0 1 -0.707107 0.707107 0 
0 0 1 0.983149 0 0.182804 0 0 1 
0 0 1 0 0 1 0 0 1 
0 0 1 -0.707107 0.707107 0 0 0 1 
0.701073 0.701073 0.130356 0 0 1 0 0 1 
0 0 1 0 0 1 -1 0 0 
0 0 1 0.983149 0 0.182804 0 0 1 
0 0 1 0 0 1 -0.707107 0.707107 0 
0 0 1 0.983149 0 0.182804 0 0 1 
0 0 1 0 0 1 -1 0 0 
0 0 1 0.983149 0 0.182804 0 0 1 
0 0 1 -1 0 0 0 0 1 
0.983149 0 0.182804 0 0 1 0 0 1 
-1 0 0 0 0 1 0.983149 0 0.182804 
0 0 1 0 0 1 -1 0 0 
0.701073 -0.701073 0.130356 0 0 1 0 0 1 
0 0 1 0 0 1 -1 0 0 
0 0 1 0.983149 0 0.182804 0 0 1 
0 0 1 0 0 1 0 0 1 
0 0 1 -1 0 0 0 0 1 
0.983149 0 0.182804 0 0 1 0 0 1 
0 0 1 0 0 1 0 0 1 
0 0 1 0 0 1 0 0 1 
-1 0 0 0.701073 -0.701073 0.130356 0 0 1 
0 0 1 0 0 1 0 0 1 
0 0 1 0 0 1 0 0 1 
0 0 1 0 0 1 0 0 1 
0 0 1 -1 0 0 0.701073 -0.701073 0.130356 
0 0 1 0 0 1 0 0 1 
0 0 1 0 0 1 0 0 1 
0 0 1 0 0 1 0 0 1 
-0.701073 -0.701073 0.130356 0.701073 -0.701073 0.130356 0 0 1 
0 0 1 0 0 1 0 0 1 
0 0 1 0 0 1 0 0 1 
-0.701073 -0.701073 0.130356 0.701073 -0.701073 0.130356 0 0 1 
0 0 1 0 0 1 0 0 1 
0 0 1 -0.701073 -0.701073 0.130356 0 -0.983149 0.182804 
0 -0.983149 0.182804 0 -0.983149 0.182804 0 -0.983149 0.182804 
0 -0.983149 0.182804 0 0 1 0.701073 0.701073 0.130356 
0 1 0 0 0.983149 0.182804 0 0 1 
0 0.983149 0.182804 0 0 1 0 0.983149 0.182804 
0 0 1 0 0.983149 0.182804 0 0 1 
0 0.983149 0.182804 0 0.983149 0.182804 0 1 0 
-0.707107 0.707107 0 0 0 1 1 0 0 
0 1 0 0 0 1 0 0 1 
0 0 1 0 0 1 -0.701073 0.701073 -0.130356 
0 0 1 0.983149 0 0.182804 0 0 1 
0 0 1 0 0 1 -0.701073 0.701073 -0.130356 
0 0 1 0.983149 0 0.182804 0 0 1 
0 0 1 -0.701073 0.701073 -0.130356 0 0 1 
0.983149 0 0.182804 0 0 1 0 0 1 
-0.983149 0 -0.182804 0 0 1 0.983149 0 0.182804 
0 0 1 -0.983149 0 -0.182804 0 0 1 
0.983149 0 0.182804 0 0 1 -0.701073 0.701073 -0.130356 
0 0 -1 0 0 1 0.983149 0 0.182804 
0 0 1 -0.983149 0 -0.182804 0.701073 -0.701073 0.130356 
0 0 1 -0.983149 0 -0.182804 0 0 1 
0.983149 0 0.182804 -0.707107 0.707107 0 0.701073 -0.701073 0.130356 
0 0 1 -1 0 0 0 0 1 
0.983149 0 0.182804 -1 0 0 0.701073 -0.701073 0.130356 
-1 0 0 0 0 1 0.983149 0 0.182804 
-1 0 0 0.701073 -0.701073 0.130356 0 0 1 
-1 0 0 0 0 1 0.983149 0 0.182804 
0 0 1 0 0 1 -0.707107 0.707107 0 
0.701073 -0.701073 0.130356 0 0 1 0 0 1 
0 0 1 0 0 1 0 0 1 
-1 0 0 0 0 1 0.983149 0 0.182804 
0 0 1 0 0 1 0 0 1 
0 0 1 0 0 1 0 0 1 
-1 0 0 0 0 1 0.983149 0 0.182804 
0 0 1 0 0 1 0 0 1 
0 0 1 0 0 1 0 0 1 
0 0 1 0 0 1 0 0 1 
0 0 1 0 0 1 -1 0 0 
0 0 1 0.983149 0 0.182804 0 0 1 
0 0 1 0 0 1 0 0 1 
0 0 1 0 0 1 0 0 1 
0 0 1 0 0 1 0 0 1 
0 0 1 -1 0 0 0.701073 -0.701073 0.130356 
0 0 1 0 0 1 0 0 1 
0 0 1 0 0 1 0 0 1 
0 0 1 0 0 1 0 0 1 
0 0 1 0 0 1 -1 0 0 
0 0 1 0.983149 0 0.182804 0 0 1 
0 0 1 0 0 1 0 0 1 
0 0 1 0 0 1 0 0 1 
0 0 1 0 0 1 0 0 1 
-1 0 0 0 0 1 0.983149 0 0.182804 
0 0 1 0 0 1 0 0 1 
0 0 1 0 0 1 0 0 1 
0 0 1 0 0 1 0 0 1 
0 0 1 -1 0 0 0 0 1 
0.983149 0 0.182804 0 0 1 0 0 1 
0 0 1 0 0 1 0 0 1 
0 0 1 0 0 1 0 0 1 
0 0 1 -0.707107 -0.707107 0 0 0 1 
0.983149 0 0.182804 0 0 1 0 0 1 
0 0 1 0 0 1 0 0 1 
0 0 1 0 0 1 0 0 1 
0 0 1 -1 0 0 0.701073 -0.701073 0.130356 
0 0 1 0 0 1 0 0 1 
0 0 1 0 0 1 0 0 1 
0 0 1 0 0 1 -0.707107 -0.707107 0 
0 0 1 1 0 0 0 0 1 
0 0 1 0 0 1 0 0 1 
0 0 1 0 0 1 -0.707107 -0.707107 0 
0 -1 0 0.707107 -0.707107 0 0 0 1 
0 0 1 0 0 1 -0.707107 -0.707107 0 
0 -1 0 0 -1 0 0 -1 0 
0 -1 0 0.701073 0.701073 0.130356 0 1 0 
0 1 0 0 1 0 0 1 0 
0 1 0 0 1 0 -0.707107 0.707107 0 
0.701073 0.701073 0.130356 0 1 0 -0.701073 0.701073 0.130356 
0.701073 0.701073 0.130356 -0.707107 0.707107 0 0.983149 0 0.182804 
-0.707107 0.707107 0 0.983149 0 0.182804 -0.707107 0.707107 0 
0.983149 0 0.182804 -1 0 0 0.983149 0 0.182804 
-1 0 0 0.983149 0 0.182804 -0.707107 0.707107 0 
0.983149 0 0.182804 -1 0 0 0 0 1 
0.983149 0 0.182804 -0.707107 0.707107 0 0 0 1 
0.983149 0 0.182804 -1 0 0 0 0 1 
0.983149 0 0.182804 0 0 1 -1 0 0 
0 0 1 0.983149 0 0.182804 0 0 1 
-1 0 0 0 0 1 0.983149 0 0.182804 
0 0 1 0 0 1 -1 0 0 
0 0 1 0.983149 0 0.182804 0 0 1 
0 0 1 -1 0 0 0 0 1 
0.983149 0 0.182804 0 0 1 0 0 1 
0 0 1 -1 0 0 0.701073 -0.701073 0.130356 
0 0 1 0 0 1 0 0 1 
-1 0 0 0 0 1 0.983149 0 0.182804 
0 0 1 0 0 1 0 0 1 
-0.983149 0 -0.182804 0 0 1 1 0 0 
0 0 1 0 0 1 0 0 1 
-0.983149 0 -0.182804 0.707107 -0.707107 0 0 0 1 
0 0 1 0 0 1 -0.983149 0 -0.182804 
0 0 1 1 0 0 0 0 1 
0 0 1 -0.983149 0 -0.182804 0.707107 -0.707107 0 
0 0 1 0 0 1 0 0 1 
-0.983149 0 -0.182804 0.707107 -0.707107 0 0 0 1 
0 0 1 -0.983149 0 -0.182804 0 0 1 
1 0 0 0 0 1 -0.983149 0 -0.182804 
0.707107 -0.707107 0 0 0 1 -0.701073 -0.701073 -0.130356 
0.707107 -0.707107 0 -0.701073 -0.701073 -0.130356 0 0 -1 
0.707107 -0.707107 0 -0.701073 -0.701073 -0.130356 0 0 -1 
0 -1 0 0 -0.983149 -0.182804 0 -0.983149 -0.182804 
0 -0.983149 -0.182804 0 -0.983149 -0.182804 0 -0.983149 -0.182804 
0 -0.983149 -0.182804 0 0 -1 0 0 -1 
0 0 -1 0 0 -1 0.707107 0.707107 0 
0 1 0 0 1 0 0 1 0 
0 1 0 0 1 0 0 1 0 
0 1 0 -0.707107 0.707107 0 0.707107 0.707107 0 
0 1 0 0 1 0 -1 0 0 
0.707107 0.707107 0 -0.707107 0.707107 0 1 0 0 
-0.707107 0.707107 0 1 0 0 -1 0 0 
1 0 0 -0.701073 0.701073 -0.130356 1 0 0 
-1 0 0 1 0 0 -1 0 0 
1 0 0 -0.983149 0 -0.182804 1 0 0 
-0.983149 0 -0.182804 1 0 0 -0.701073 0.701073 -0.130356 
0 0 -1 1 0 0 -0.983149 0 -0.182804 
1 0 0 -0.983149 0 -0.182804 1 0 0 
-0.983149 0 -0.182804 1 0 0 -0.983149 0 -0.182804 
1 0 0 -0.701073 -0.701073 -0.130356 0 0 -1 
0.707107 -0.707107 0 -0.983149 0 -0.182804 0 0 -1 
1 0 0 -0.701073 -0.701073 -0.130356 0 0 -1 
0 0 -1 0.707107 -0.707107 0 -0.701073 -0.701073 -0.130356 
0 0 -1 0 0 -1 0 0 -1 
0.707107 -0.707107 0 -0.701073 -0.701073 -0.130356 0 0 -1 
0 0 -1 0 0 -1 0 0 -1 
0 -0.983149 -0.182804 0.701073 -0.701073 -0.130356 -0.701073 -0.701073 -0.130356 
0 -0.983149 -0.182804 0 0 -1 0 0 -1 
0 0 -1 0 0 -1 0 0 -1 
0 0 -1 0 -0.983149 -0.182804 0 -0.983149 -0.182804 
0 -0.983149 -0.182804 0 -0.983149 -0.182804 0 -0.983149 -0.182804 
0 -0.983149 -0.182804 0 0 -1 0 0 -1 
0 0 -1 0 0 -1 0 0 -1 
0 0 -1 0 0 -1 0 0 -1 
0 0 -1 0 0 -1 0 0 -1 
0 0 -1 0 0 -1 0 0 -1 
0 0 -1 0 0 -1 0 0 -1 
0 0 -1 0 0 -1 0 0 -1 
0 0 -1 0 0 -1 0 0 -1 
0 0 -1 0 0 -1 0 0 -1 
0 0 -1 0 0 -1 0 0 -1 
0 0 -1 0 0 -1 0 0 -1 
0 0 -1 0 0 -1 0 0 -1 
0 0 -1 0 0 -1 0 0 -1 
0 0 -1 0 0 -1 0 0 -1 
0 0 -1 0 0 -1 0 0 -1 
0 0 -1 0 0 -1 0 0 -1 
0 0 -1 0 0 -1 0 0 -1 
0 0 -1 0 0 -1 0 0 -1 
0 0 -1 0 0 -1 0 0 -1 
0 0 -1 0 0 -1 0 0 -1 
0 0 -1 0 0 -1 0 0 -1 
0 0 -1 0 0 -1 0 0 -1 
0 0 -1 0 0 -1 0 0 -1 
0 0 -1 0 0 -1 0 0 -1 
0 0.983149 -0.182804 0 0.983149 -0.182804 0 0.983149 -0.182804 
0 0.983149 -0.182804 0 0.983149 -0.182804 0 0.983149 -0.182804 
0 0 -1 0 0 -1 0 0 -1 
0 0 -1 0 0.983149 -0.182804 0.701073 0.701073 -0.130356 
-0.701073 0.701073 -0.130356 0 0 -1 0 0 -1 
0 0 -1 0.983149 0 -0.182804 -0.983149 0 -0.182804 
0 0 -1 0 0 -1 0 0 -1 
0.701073 0.701073 -0.130356 -0.701073 0.701073 -0.130356 0 0 -1 
0 0 -1 0 0 -1 0.701073 0.701073 -0.130356 
-0.983149 0 -0.182804 0 0 -1 0.983149 0 -0.182804 
-0.983149 0 -0.182804 0 0 -1 0 0 -1 
0.983149 0 -0.182804 -0.983149 0 -0.182804 0 0 -1 
0 0 -1 0.983149 0 -0.182804 -0.983149 0 -0.182804 
0 0 -1 0 0 -1 0.983149 0 -0.182804 
-0.983149 0 -0.182804 0 0 -1 0 0 -1 
0.983149 0 -0.182804 -0.983149 0 -0.182804 0 0 -1 
0 0 -1 0.983149 0 -0.182804 -0.983149 0 -0.182804 
0 0 -1 0 0 -1 0 0 -1 
0.983149 0 -0.182804 -0.701073 -0.701073 -0.130356 0 0 -1 
0 0 -1 0 0 -1 0 0 -1 
0.983149 0 -0.182804 -0.983149 0 -0.182804 0 0 -1 
0 0 -1 0 0 -1 0 0 -1 
0.983149 0 -0.182804 -0.701073 -0.701073 -0.130356 0 0 -1 
0 0 -1 0 0 -1 0 0 -1 
0 0 -1 0 0 -1 0.701073 -0.701073 -0.130356 
-0.701073 -0.701073 -0.130356 0 0 -1 0 0 -1 
0 0 -1 0 0 -1 0 0 -1 
0 0 -1 0.701073 -0.701073 -0.130356 -0.701073 -0.701073 -0.130356 
0 0 -1 0 0 -1 0 0 -1 
0 0 -1 0 0 -1 0 0 -1 
0 0 -1 0 0 -1 0 -0.983149 -0.182804 
0 -0.983149 -0.182804 0 -0.983149 -0.182804 0 -0.983149 -0.182804 
0 -0.983149 -0.182804 0 -0.983149 -0.182804 0 0 -1 
0 0 -1 0 0 -1 0 0 -1 
0 0 -1 0 0 -1 0 0 -1 
0 0 -1 0 0 -1 0 0 -1 
0 0 -1 0 0 -1 0 0 -1 
0 0 -1 0 0 -1 0 0 -1 
0 0 -1 0 0 -1 0 0 -1 
0 0 -1 0 0 -1 0 0 -1 
0 0 -1 0 0 -1 0 0 -1 
0 0 -1 0 0 -1 0 0 -1 
0 0 -1 0 0 -1 0 0 -1 
0 0 -1 0 0 -1 0 0 -1 
0 0 -1 0 0 -1 0 0 -1 
0 0 -1 0 0 -1 0 0 -1 
0 0 -1 0 0 -1 0 0 -1 
0 0 -1 0 0 -1 0 0 -1 
0 0 -1 0 0 -1 0 0 -1 
0 0 -1 0 0 -1 0 0 -1 
0 0 -1 0 0 -1 0 0 -1 
0 0 -1 0 0 -1 0 0 -1 
0 0 -1 0 0 -1 0 0 -1 
0 0 -1 0 0 -1 0 0 -1 
0 0 -1 0 0 -1 0 0 -1 
0 0 -1 0 0 -1 0 0 -1 
0 0 -1 0 0 -1 0 0 -1 
0 0 -1 0 0 -1 0 0 -1 
0 0 -1 0 0 -1 0 0 -1 
0 0 -1 0 0 -1 0 0 -1 
0 0 -1 0 0 -1 0 0 -1 
0 0 -1 0 0 -1 0 0 -1 
0 0 -1 0 0 -1 0 0 -1 
0 0 -1 0 0 -1 0 0 -1 
0 0 -1 0 0 -1 0 0 -1 
0 0 -1 0 0 -1 0 0 -1 
0 0 -1 0 0 -1 0 0 -1 
0 0 -1 0 0 -1 0 0 -1 
0 0 -1 0 0 -1 0 0 -1 
0 0 -1 0 0 -1 0 0 -1 
0 0 -1 0 0 -1 0 0 -1 
0 0 -1 0 0 -1 0 0 -1 
0 0 -1 0 0 -1 0 0 -1 
0 0 -1 0 0 -1 0 0 -1 
0 0 -1 0 0 -1 0 0 -1 
0 0 -1 0 0 -1 0 0 -1 
0 0 -1 0 0 -1 0 0 -1 
0 0 -1 0 0 -1 0 0 -1 
0 0 -1 0 0 -1 0 0 -1 
0 0 -1 0 0 -1 0 0 -1 
0 0 -1 0 0 -1 0 0 -1 
0 0 -1 0 0 -1 0 0 -1 
0 0 -1 0 0 -1 0 0 -1 
0 0 -1 0 0 -1 0 0 -1 
0 0 -1 0 0 -1 0 0 -1 
0 0 -1 0 0 -1 0 0 -1 
0 0 -1 0 0 -1 0 0 -1 
0 0 -1 0 0 -1 0 0 -1 
0 0 -1 0 0 -1 0 0 -1 
0 0 -1 0 0 -1 0 0 -1 
0 0 -1 0 0 -1 0 0 -1 
0 0 -1 0 0 -1 0 0 -1 
0 0 -1 0 0 -1 0 0 -1 
0 0 -1 0 0 -1 0 0 -1 
0 0 -1 0 0 -1 0 0 1 
0.701073 0.701073 0.130356 0 1 0 0 0.983149 0.182804 
0 0 1 -0.701073 0.701073 0.130356 0 0 1 
0.983149 0 0.182804 0 0 1 0 0 1 
0 0 1 -0.701073 0.701073 0.130356 0 0 1 
0.983149 0 0.182804 0 0 1 0 0 1 
0 0 1 0 0 1 -0.983149 0 0.182804 
0 0 1 0.983149 0 0.182804 0 0 1 
0 0 1 0 0 1 0 0 1 
-0.983149 0 0.182804 0 0 1 0.983149 0 0.182804 
0 0 1 0 0 1 0 0 1 
-0.701073 -0.701073 0.130356 0 0 1 0.983149 0 0.182804 
0 0 1 0 0 1 -0.701073 -0.701073 0.130356 
0 -0.983149 0.182804 0 -0.983149 0.182804 0 -0.983149 0.182804 
0.707107 0.707107 0 0 1 0 0 1 0 
0 0 1 0 1 0 0 0 1 
0 1 0 0 0 1 0 1 0 
0 0 1 -0.707107 0.707107 0 0.707107 0.707107 0 
0 1 0 0 0 1 0 0 1 
0 0 1 0 0 1 -0.707107 0.707107 0 
0 0 1 0.707107 0.707107 0 0 1 0 
0 0 1 0 0 1 0 0 1 
0 0 1 -1 0 0 0 0 1 
1 0 0 0 0 1 0 0 1 
0 0 1 0 0 1 -1 0 0 
0 0 1 1 0 0 0 0 1 
0 0 1 0 0 1 0 0 1 
-1 0 0 0 0 1 1 0 0 
0 0 1 0 0 1 0 0 1 
0 0 1 0 0 1 -1 0 0 
0 0 1 1 0 0 0 0 1 
0 0 1 0 0 1 0 0 1 
0 0 1 -0.707107 -0.707107 0 0 0 1 
1 0 0 0 0 1 0 0 1 
0 0 1 0 0 1 0 0 1 